PySCF version 1.7.6a1

[INPUT] num. atoms = 14
[INPUT] num. electrons = 34
[INPUT] charge = 0
[INPUT] spin (= nelec alpha-beta = 2S) = 0
[INPUT] symmetry True subgroup None
[INPUT] Mole.unit = angstrom
[INPUT]  1 C      0.000000000000   0.000000000000   0.365000000000 AA    0.000000000000   0.000000000000   0.689750035466 Bohr
[INPUT]  2 C      0.000000000000   1.452800000000  -0.098700000000 AA    0.000000000000   2.745394113768  -0.186515968495 Bohr
[INPUT]  3 C      1.258200000000  -0.726400000000  -0.098700000000 AA    2.377653409928  -1.372697056884  -0.186515968495 Bohr
[INPUT]  4 C     -1.258200000000  -0.726400000000  -0.098700000000 AA   -2.377653409928  -1.372697056884  -0.186515968495 Bohr
[INPUT]  5 H      0.000000000000   0.000000000000   1.473000000000 AA    0.000000000000   0.000000000000   2.783566581484 Bohr
[INPUT]  6 H      0.000000000000   1.486700000000  -1.193100000000 AA    0.000000000000   2.809455829391  -2.254632239219 Bohr
[INPUT]  7 H      1.287500000000  -0.743300000000  -1.193100000000 AA    2.433022385378  -1.404633428389  -2.254632239219 Bohr
[INPUT]  8 H     -1.287500000000  -0.743300000000  -1.193100000000 AA   -2.433022385378  -1.404633428389  -2.254632239219 Bohr
[INPUT]  9 H      0.894100000000   1.957500000000   0.282100000000 AA    1.689604127974   3.699138888836   0.533091739740 Bohr
[INPUT] 10 H     -0.894100000000   1.957500000000   0.282100000000 AA   -1.689604127974   3.699138888836   0.533091739740 Bohr
[INPUT] 11 H      1.248200000000  -1.753000000000   0.282100000000 AA    2.358756148682  -3.312689896363   0.533091739740 Bohr
[INPUT] 12 H      2.142200000000  -0.204500000000   0.282100000000 AA    4.048171304043  -0.386448992474   0.533091739740 Bohr
[INPUT] 13 H     -2.142200000000  -0.204500000000   0.282100000000 AA   -4.048171304043  -0.386448992474   0.533091739740 Bohr
[INPUT] 14 H     -1.248200000000  -1.753000000000   0.282100000000 AA   -2.358756148682  -3.312689896363   0.533091739740 Bohr
[INPUT] ---------------- BASIS SET ---------------- 
[INPUT] l, kappa, [nprim/nctr], expnt,             c_1 c_2 ...
[INPUT] H
[INPUT] 0    0    [3    /1   ]  18.731137         0.0334946
                                2.8253937         0.23472695
                                0.6401217         0.81375733
[INPUT] 0    0    [1    /1   ]  0.1612778            1
[INPUT] 1    0    [1    /1   ]  1.1                  1
[INPUT] C
[INPUT] 0    0    [6    /1   ]  3047.5249         0.0018347
                                457.36951         0.0140373
                                103.94869         0.0688426
                                29.210155         0.2321844
                                9.286663          0.4679413
                                3.163927          0.362312
[INPUT] 0    0    [3    /1   ]  7.8682724         -0.1193324
                                1.8812885         -0.1608542
                                0.5442493         1.1434564
[INPUT] 0    0    [1    /1   ]  0.1687144            1
[INPUT] 1    0    [3    /1   ]  7.8682724         0.0689991
                                1.8812885         0.316424
                                0.5442493         0.7443083
[INPUT] 1    0    [1    /1   ]  0.1687144            1
[INPUT] 2    0    [1    /1   ]  0.8                  1

nuclear repulsion = 135.027637778707
point group symmetry = Cs
num. orbitals of irrep A' = 62
num. orbitals of irrep A" = 44
number of shells = 54
number of NR pGTOs = 178
number of NR cGTOs = 106
basis = 6-31G(d,p)

**** SCF Summaries ****
Total Energy = -157.312320459

**** MO energy ****
MO #1 (A' #1), energy= -11.2196232783043 occ= 2
MO #2 (A' #2), energy= -11.2087743860095 occ= 2
MO #3 (A" #1), energy= -11.2087593033121 occ= 2
MO #4 (A' #3), energy= -11.2087118502781 occ= 2
MO #5 (A' #4), energy= -1.08206040018108 occ= 2
MO #6 (A" #2), energy= -0.925152249461201 occ= 2
MO #7 (A' #5), energy= -0.925134045834346 occ= 2
MO #8 (A' #6), energy= -0.75790507845946 occ= 2
MO #9 (A' #7), energy= -0.630411152889625 occ= 2
MO #10 (A' #8), energy= -0.58954003140074 occ= 2
MO #11 (A" #3), energy= -0.589519680258083 occ= 2
MO #12 (A" #4), energy= -0.534200346831891 occ= 2
MO #13 (A' #9), energy= -0.534192868586378 occ= 2
MO #14 (A" #5), energy= -0.50919724026443 occ= 2
MO #15 (A" #6), energy= -0.457109495062065 occ= 2
MO #16 (A' #10), energy= -0.457108984685595 occ= 2
MO #17 (A' #11), energy= -0.453549759922166 occ= 2